ITEM: TIMESTEP
2000000000
ITEM: NUMBER OF ATOMS
915
ITEM: BOX BOUNDS pp pp pp
-6.0000000000000000e+00 6.0000000000000000e+00
-1.2000000000000000e+01 1.2000000000000000e+01
-1.2000000000000000e+01 1.2000000000000000e+01
ITEM: ATOMS id x y z ix iy iz
386 0.12729 -7.64540 -7.29485 0 0 0
126 -0.68547 -7.06153 -7.67950 0 0 0
178 0.06639 -6.47318 -8.41904 0 0 0
221 0.98471 -7.07073 -7.51119 0 0 0
559 1.09896 -6.15183 -8.07151 0 0 0
545 -0.98234 -7.63796 -6.89884 0 0 0
115 -1.28036 -8.05860 -6.04105 0 0 0
552 -0.55455 -8.73665 -5.86145 0 0 0
94 0.24803 -8.36990 -6.47906 0 0 0
229 0.45414 -8.93147 -5.63505 0 0 0
457 -1.57291 -6.67521 -7.11573 0 0 0
156 -2.02121 -6.83995 -6.15966 0 0 0
519 1.69935 -6.38591 -7.16048 0 0 0
104 1.53191 -7.43243 -6.36890 0 0 0
516 2.17703 -6.52366 -6.07072 0 0 0
212 -0.26629 -9.34588 -4.84147 0 0 0
335 1.03880 -9.08092 -4.77309 0 0 0
134 -2.00279 -7.69522 -4.96610 0 0 0
161 -1.27728 -8.82780 -4.85081 0 0 0
297 1.59038 -8.16617 -5.23922 0 0 0
430 2.20360 -7.77748 -4.31351 0 0 0
614 -2.39022 -6.76221 -5.18888 0 0 0
224 -2.51422 -7.19687 -4.07687 0 0 0
809 -1.00104 -6.77671 -4.02907 0 0 0
358 2.44152 -6.81839 -4.91565 0 0 0
100 -0.21226 -9.92325 -3.56285 0 0 0
38 -0.86353 -10.07737 -2.58428 0 0 0
210 -1.30988 -9.47344 -3.26272 0 0 0
2 1.28960 -9.38840 -3.61138 0 0 0
217 1.47872 -9.57488 -2.57175 0 0 0
409 0.71763 -10.02970 -3.04911 0 0 0
345 -2.13534 -8.64682 -2.56491 0 0 0
587 -2.58821 -7.54856 -3.12573 0 0 0
405 -2.08348 -8.19011 -3.80825 0 0 0
811 -0.34190 -8.15910 -3.43312 0 0 0
812 0.16505 -8.42292 -2.71212 0 0 0
451 2.03994 -8.45880 -3.41899 0 0 0
286 -2.92773 -6.44138 -3.50536 0 0 0
420 -2.92340 -6.82388 -2.51855 0 0 0
810 -0.39618 -7.17003 -3.35083 0 0 0
29 2.91897 -6.18751 -3.92586 0 0 0
66 2.61470 -7.32405 -3.29308 0 0 0
93 0.06689 -10.61430 -0.80106 0 0 0
157 -1.54054 -9.59978 -1.99692 0 0 0
214 -0.97498 -10.18760 -1.38021 0 0 0
269 0.13337 -10.40253 -1.83143 0 0 0
80 1.10327 -10.00971 -1.64584 0 0 0
575 2.00045 -9.02343 -1.84418 0 0 0
300 1.94787 -9.29649 -0.82762 0 0 0
522 -2.57440 -8.00124 -1.79489 0 0 0
341 -2.39062 -8.44771 -0.90365 0 0 0
814 -0.67055 -8.28064 -1.16280 0 0 0
813 0.09022 -8.18562 -1.76636 0 0 0
227 2.37055 -8.23674 -2.36662 0 0 0
153 2.50958 -8.18104 -1.17242 0 0 0
130 -2.93547 -7.14089 -1.30567 0 0 0
290 2.98995 -6.97578 -1.44639 0 0 0
9 3.14666 -6.20639 -2.39465 0 0 0
440 -0.49899 -10.50939 0.24474 0 0 0
499 -1.50908 -9.81636 -0.53475 0 0 0
65 -2.09655 -9.07674 0.78594 0 0 0
112 -1.39141 -9.93295 0.48179 0 0 0
155 0.97654 -10.28939 -0.06783 0 0 0
570 -2.57941 -8.17737 0.04918 0 0 0
815 -0.86732 -7.88446 -0.32645 0 0 0
332 2.23131 -8.77992 -0.01182 0 0 0
456 2.68851 -7.93081 0.48577 0 0 0
401 -3.07589 -6.81470 -0.09595 0 0 0
132 -2.87305 -7.43800 0.78119 0 0 0
817 -0.13346 -6.44153 -0.10044 0 0 0
816 -0.01123 -7.43689 -0.20199 0 0 0
818 0.74264 -6.61499 0.20654 0 0 0
34 3.27814 -6.11256 -0.70197 0 0 0
376 3.03559 -7.04400 -0.05816 0 0 0
186 0.18150 -10.53855 1.17927 0 0 0
182 -1.77310 -9.21433 2.33545 0 0 0
118 -0.04311 -10.38215 2.24566 0 0 0
480 -1.37457 -9.85312 1.50258 0 0 0
233 1.34565 -9.77884 2.11549 0 0 0
294 1.78063 -9.49632 0.99516 0 0 0
374 -2.33770 -8.49344 1.76650 0 0 0
821 0.31924 -8.16498 2.38219 0 0 0
137 2.32904 -8.41429 1.91333 0 0 0
267 -3.18494 -6.17285 1.82705 0 0 0
598 -3.21285 -6.28235 0.81962 0 0 0
526 -2.78508 -7.39927 1.83622 0 0 0
819 0.51961 -6.81392 1.10850 0 0 0
820 0.59955 -7.30520 1.97056 0 0 0
19 2.77952 -7.43110 1.97161 0 0 0
357 3.06098 -6.89151 1.12352 0 0 0
324 -1.06621 -9.94007 2.54042 0 0 0
442 -0.25356 -10.00812 3.30551 0 0 0
125 -1.27302 -9.24385 3.97286 0 0 0
136 0.76781 -9.68492 3.67778 0 0 0
403 1.58983 -9.12892 3.43547 0 0 0
414 -2.01354 -8.43146 3.58190 0 0 0
822 0.31472 -8.03556 3.36377 0 0 0
517 2.13701 -8.46143 2.92635 0 0 0
35 2.35930 -7.75257 3.67222 0 0 0
140 -2.62215 -7.44522 2.91136 0 0 0
461 -2.99535 -6.42327 3.20498 0 0 0
824 -0.02038 -6.36065 3.79808 0 0 0
823 0.25923 -7.07551 3.29781 0 0 0
622 2.99112 -6.69332 2.61460 0 0 0
342 2.84238 -6.60050 3.62102 0 0 0
272 -0.72398 -9.14172 4.92133 0 0 0
535 -0.07528 -9.71760 4.29323 0 0 0
120 0.67610 -9.09380 5.07843 0 0 0
166 -1.75012 -8.33275 4.65301 0 0 0
339 1.56867 -8.69575 4.41782 0 0 0
368 -2.72885 -6.34403 4.57872 0 0 0
62 -2.35236 -7.43780 4.44199 0 0 0
498 2.51197 -6.19507 5.53564 0 0 0
264 2.17458 -7.31361 5.13398 0 0 0
84 -1.82559 -7.57850 5.63773 0 0 0
475 -1.09405 -8.43243 5.66412 0 0 0
43 -0.64511 -8.10379 6.58138 0 0 0
49 0.53269 -8.16904 6.60186 0 0 0
387 0.00174 -8.78466 5.94788 0 0 0
287 1.35048 -8.22329 5.68896 0 0 0
277 -1.51859 -7.24239 6.65477 0 0 0
507 -2.27120 -6.62629 5.80667 0 0 0
220 1.36930 -7.03009 7.04123 0 0 0
312 1.88873 -6.97585 6.18244 0 0 0
389 -1.42052 -6.39893 7.51652 0 0 0
142 -0.41348 -7.46494 7.48011 0 0 0
26 0.80917 -6.13682 8.33218 0 0 0
485 0.02574 -6.82137 8.13623 0 0 0
486 0.59834 -1.55062 -10.40094 0 0 0
247 -0.40914 -0.88154 -10.51932 0 0 0
17 0.52860 -0.50473 -10.49719 0 0 0
25 0.50899 -4.69180 -9.44676 0 0 0
129 0.01318 -5.56200 -9.03423 0 0 0
202 -1.61951 -3.47122 -9.11207 0 0 0
397 -0.60879 -4.43669 -9.53942 0 0 0
509 -0.86540 -3.17614 -9.83889 0 0 0
27 0.14913 -3.40964 -10.06093 0 0 0
255 1.30338 -3.52403 -9.37352 0 0 0
46 -2.11460 -1.71316 -8.90457 0 0 0
292 -0.03900 -2.33857 -10.32674 0 0 0
180 -1.21848 -2.07053 -9.91368 0 0 0
187 0.94314 -2.67950 -9.90274 0 0 0
64 1.89609 -1.50716 -9.28514 0 0 0
138 1.84427 -2.63978 -9.02431 0 0 0
53 -2.02506 -0.43922 -9.10758 0 0 0
605 -1.55855 -1.14236 -9.66596 0 0 0
209 -1.43507 -0.16447 -9.87003 0 0 0
365 1.31539 -0.83357 -9.94874 0 0 0
424 1.83949 -0.11145 -9.48432 0 0 0
238 -1.54338 -5.89960 -7.79938 0 0 0
282 -2.14497 -4.58790 -7.65388 0 0 0
167 -1.19636 -4.97230 -8.79973 0 0 0
572 -0.85708 -5.92077 -8.55939 0 0 0
159 1.22526 -5.17360 -8.64597 0 0 0
432 1.77318 -5.45207 -7.81699 0 0 0
400 -2.16365 -3.68831 -8.11147 0 0 0
218 2.17794 -4.05352 -8.00358 0 0 0
382 -2.10075 -2.71393 -8.64655 0 0 0
92 -2.65023 -2.64185 -7.56468 0 0 0
183 2.46659 -2.78458 -7.97795 0 0 0
82 -2.59508 -1.49923 -7.92250 0 0 0
327 -2.80800 -0.37877 -7.53563 0 0 0
109 2.38289 -0.04824 -8.52035 0 0 0
602 2.92613 -1.29266 -7.22570 0 0 0
87 2.54645 -1.33027 -8.15566 0 0 0
353 -2.56798 -4.97581 -6.50416 0 0 0
586 -2.10969 -5.88071 -6.78710 0 0 0
67 2.36969 -5.02687 -7.02225 0 0 0
323 -2.79653 -3.82709 -6.67277 0 0 0
492 2.67884 -3.54637 -7.07753 0 0 0
331 2.75783 -4.27201 -6.37795 0 0 0
72 -3.12858 -1.87032 -6.48695 0 0 0
691 0.22943 -1.61046 -6.12606 0 0 0
692 0.77802 -2.25119 -5.74431 0 0 0
340 3.06432 -2.07394 -6.60917 0 0 0
375 3.23696 -2.73483 -5.69583 0 0 0
103 -3.23974 -0.39833 -6.27959 0 0 0
696 1.36915 -0.53359 -5.65619 0 0 0
697 0.63375 -0.09852 -6.13281 0 0 0
416 3.00885 -0.28211 -7.04011 0 0 0
396 3.27346 -1.02695 -6.14185 0 0 0
585 -2.95754 -4.89489 -5.22365 0 0 0
330 -2.76873 -5.85379 -5.01068 0 0 0
808 -1.40170 -5.92092 -4.14426 0 0 0
41 2.71339 -5.63404 -5.39993 0 0 0
506 3.16464 -4.91251 -4.51055 0 0 0
192 -3.13809 -3.85453 -5.49947 0 0 0
7 -3.47420 -3.14574 -4.47311 0 0 0
518 -3.29407 -4.34816 -4.34513 0 0 0
678 0.41517 -3.83953 -4.05725 0 0 0
679 1.33217 -3.92841 -4.12292 0 0 0
262 3.21009 -3.99866 -5.05319 0 0 0
299 3.49179 -3.39010 -4.01838 0 0 0
108 -3.26564 -2.64752 -5.57864 0 0 0
425 -3.51243 -1.90920 -4.82001 0 0 0
689 -0.52341 -1.74652 -4.60448 0 0 0
690 -0.41905 -2.04802 -5.51363 0 0 0
693 0.84559 -2.53696 -4.83805 0 0 0
694 1.70115 -2.18093 -5.15124 0 0 0
467 3.52747 -2.33470 -4.63217 0 0 0
198 -3.52050 -0.87929 -5.05323 0 0 0
695 1.32221 -1.25430 -5.05581 0 0 0
268 3.51847 -1.30695 -5.11493 0 0 0
279 -3.12464 -5.41566 -3.99647 0 0 0
806 -0.61676 -4.89912 -3.23770 0 0 0
807 -1.47178 -5.44691 -3.38393 0 0 0
680 1.81385 -4.52385 -3.54774 0 0 0
371 3.34222 -4.73799 -3.47074 0 0 0
609 -3.52717 -3.78824 -3.54819 0 0 0
48 -3.49519 -4.42299 -2.77319 0 0 0
676 -1.33049 -3.90582 -3.71486 0 0 0
805 -0.94761 -4.22583 -2.53954 0 0 0
677 -0.38348 -3.63777 -3.70679 0 0 0
681 1.54084 -4.02724 -2.81259 0 0 0
22 3.67323 -3.64363 -2.52426 0 0 0
261 -3.66106 -2.68588 -3.49894 0 0 0
613 -3.82991 -1.98744 -2.74757 0 0 0
775 -1.62560 -1.78826 -3.49364 0 0 0
688 -0.21943 -2.38950 -3.96074 0 0 0
774 -1.16038 -1.57899 -2.65611 0 0 0
687 0.45520 -2.17988 -3.24726 0 0 0
683 1.87392 -2.35064 -2.83384 0 0 0
110 3.77106 -2.61964 -2.81640 0 0 0
468 3.74869 -1.67179 -3.56363 0 0 0
222 -3.86815 -0.98268 -2.74094 0 0 0
285 -3.70889 -1.42970 -3.90575 0 0 0
856 -1.67319 -0.03532 -2.44686 0 0 0
858 -0.63689 -0.37931 -2.53001 0 0 0
776 -1.19783 -1.08547 -3.98743 0 0 0
777 -0.56466 -1.08625 -3.28723 0 0 0
778 -0.07251 -1.19646 -2.51400 0 0 0
686 0.75272 -1.26923 -3.17225 0 0 0
846 0.69982 -0.32946 -3.55658 0 0 0
847 0.45749 -0.05487 -2.69076 0 0 0
845 1.59142 -0.25048 -3.95560 0 0 0
684 1.71427 -1.39655 -2.69879 0 0 0
85 3.82851 -0.33551 -3.48072 0 0 0
399 3.88017 -0.98414 -2.68624 0 0 0
304 -3.35674 -5.47620 -2.08377 0 0 0
515 -3.45633 -5.35129 -1.07529 0 0 0
784 1.51574 -4.75791 -0.86064 0 0 0
75 3.49451 -4.93225 -1.92497 0 0 0
542 -3.80726 -3.06414 -1.93955 0 0 0
452 -3.70492 -4.04221 -1.37252 0 0 0
790 -2.08173 -3.32818 -1.46918 0 0 0
789 -1.35548 -3.88575 -1.23156 0 0 0
803 -0.11366 -3.76607 -1.47141 0 0 0
804 -0.12633 -4.44635 -2.09690 0 0 0
682 1.92174 -3.14999 -2.33782 0 0 0
303 3.83434 -3.31050 -0.98893 0 0 0
615 3.65948 -4.30660 -1.14708 0 0 0
355 -3.90232 -2.04570 -1.72601 0 0 0
802 -0.26872 -2.84453 -1.21736 0 0 0
801 -0.50051 -1.94713 -1.13559 0 0 0
779 0.01592 -2.08454 -2.16257 0 0 0
780 0.94223 -1.99791 -2.00666 0 0 0
781 0.54596 -2.12809 -1.14624 0 0 0
782 1.13387 -2.91037 -1.03381 0 0 0
616 3.83452 -2.70119 -1.79637 0 0 0
533 3.92631 -1.71492 -1.61659 0 0 0
158 -4.01632 -0.50808 -1.25686 0 0 0
797 -1.59632 -0.76686 -1.09518 0 0 0
859 -0.03814 -0.19400 -1.76117 0 0 0
773 -0.89989 -1.15959 -1.79783 0 0 0
631 -0.57564 -0.65084 -0.88624 0 0 0
685 0.97044 -0.86536 -2.35371 0 0 0
860 0.25724 -1.10166 -1.53892 0 0 0
861 1.16656 -0.70110 -1.33871 0 0 0
837 2.35284 -0.92910 -1.00415 0 0 0
838 2.03954 -0.21459 -1.51632 0 0 0
625 3.96835 -0.41091 -1.87086 0 0 0
33 4.00611 -0.82730 -0.95276 0 0 0
173 -3.67190 -4.50457 -0.36528 0 0 0
436 -3.38828 -5.80312 -0.14325 0 0 0
788 -1.37763 -4.57734 -0.55747 0 0 0
787 -0.72595 -5.17198 -0.37818 0 0 0
785 0.71022 -4.52925 -0.37831 0 0 0
786 0.18261 -5.23663 -0.13254 0 0 0
495 3.53825 -5.05194 -0.46412 0 0 0
139 3.48171 -5.31057 0.56753 0 0 0
497 -3.82475 -3.33307 -0.42579 0 0 0
791 -2.10446 -3.41029 -0.48167 0 0 0
829 -0.31781 -4.24917 0.55685 0 0 0
830 -0.42417 -3.40843 0.08524 0 0 0
783 1.36224 -3.80368 -0.77455 0 0 0
337 3.72149 -4.06425 -0.16582 0 0 0
511 3.82879 -3.37301 0.56439 0 0 0
135 -3.96030 -2.09513 -0.54787 0 0 0
610 -3.96425 -1.85051 0.44862 0 0 0
795 -2.13292 -1.91563 -0.02757 0 0 0
793 -1.04594 -2.08328 0.29705 0 0 0
831 -0.04854 -2.55637 -0.17464 0 0 0
796 -1.46427 -1.74884 -0.69710 0 0 0
792 -1.43175 -2.87961 0.01038 0 0 0
800 0.18974 -1.55565 -0.46859 0 0 0
832 0.77795 -2.24571 0.05160 0 0 0
877 0.06139 -1.66935 0.66737 0 0 0
875 1.79313 -1.76868 0.52761 0 0 0
833 1.66425 -2.66715 -0.09021 0 0 0
834 1.71342 -1.76434 -0.50717 0 0 0
274 3.93421 -2.34727 0.66246 0 0 0
381 3.93699 -2.29471 -0.69738 0 0 0
483 -4.02724 -0.80734 -0.30203 0 0 0
853 -2.13682 -0.11565 -0.50637 0 0 0
794 -1.67524 -1.46502 0.73800 0 0 0
758 -2.21726 -0.60084 0.63115 0 0 0
634 -0.51900 -0.17023 0.04031 0 0 0
798 -1.33989 -0.76953 -0.17674 0 0 0
799 -0.62136 -1.30514 -0.07383 0 0 0
870 1.18295 -0.32234 0.53454 0 0 0
633 0.24064 -0.68451 0.19563 0 0 0
632 0.27335 -0.41896 -0.70418 0 0 0
835 1.11576 -1.06650 -0.33313 0 0 0
876 0.91803 -1.37111 0.77148 0 0 0
836 1.98197 -0.84181 -0.08279 0 0 0
447 4.02222 -1.26392 0.59644 0 0 0
508 4.05612 -0.16783 -0.04371 0 0 0
133 -3.56214 -4.95953 0.84357 0 0 0
827 0.44841 -4.66996 2.07973 0 0 0
828 0.40973 -4.54980 1.15655 0 0 0
579 3.47845 -4.98776 1.76324 0 0 0
574 3.27444 -5.94468 1.46872 0 0 0
595 -3.73853 -3.42701 1.95526 0 0 0
463 -3.75181 -3.92278 0.85107 0 0 0
164 -3.61161 -4.44473 1.77866 0 0 0
879 0.63356 -3.20952 1.32528 0 0 0
596 3.66717 -4.37002 0.87783 0 0 0
152 3.65478 -4.00236 1.94908 0 0 0
301 -3.88187 -2.79538 0.84805 0 0 0
123 -3.87920 -2.43379 1.90457 0 0 0
770 -1.07562 -2.42010 1.84372 0 0 0
769 -0.78794 -1.64020 1.29586 0 0 0
878 -0.06787 -2.59664 1.05410 0 0 0
662 0.47556 -2.22877 2.16227 0 0 0
880 0.99355 -2.32134 1.27748 0 0 0
881 1.65118 -2.61482 1.86699 0 0 0
873 1.89630 -1.61055 1.82432 0 0 0
874 2.46656 -2.15023 1.25405 0 0 0
590 3.81699 -2.99595 1.60582 0 0 0
254 3.90753 -1.98634 1.90325 0 0 0
356 -3.98390 -1.00352 1.11704 0 0 0
757 -2.51803 -1.27208 1.30310 0 0 0
756 -2.10818 -1.43417 2.14275 0 0 0
761 -0.44943 -0.25080 1.82156 0 0 0
767 -1.41986 -0.65686 1.52032 0 0 0
768 -0.74609 -0.83378 0.87435 0 0 0
766 -1.02962 -1.20410 2.18253 0 0 0
663 0.03821 -1.40059 1.93296 0 0 0
872 1.33092 -0.88911 1.70719 0 0 0
664 0.33976 -0.67093 1.27310 0 0 0
871 1.94838 -0.63785 1.02755 0 0 0
510 3.92875 -0.35877 2.37923 0 0 0
119 4.01855 -0.42012 1.15810 0 0 0
527 -3.37191 -5.33570 2.42865 0 0 0
825 -0.20063 -5.65535 3.14926 0 0 0
826 -0.38485 -5.08790 2.43000 0 0 0
5 3.42633 -4.59165 3.07270 0 0 0
359 3.24664 -5.73365 2.46258 0 0 0
225 3.15741 -5.35700 3.73281 0 0 0
201 -3.58961 -3.93748 2.90601 0 0 0
772 -1.70017 -3.39971 3.21959 0 0 0
197 3.66034 -3.34403 3.06452 0 0 0
538 -3.73224 -2.91341 2.81870 0 0 0
170 -3.60370 -2.92982 3.82308 0 0 0
764 -0.82783 -1.68184 3.49914 0 0 0
771 -1.30997 -2.72989 2.71689 0 0 0
661 0.79038 -2.91729 2.84855 0 0 0
659 1.29465 -2.84471 3.99524 0 0 0
660 1.73515 -2.92491 3.09528 0 0 0
86 3.71693 -2.33245 3.46507 0 0 0
258 -3.85654 -1.19993 2.74091 0 0 0
145 -3.75620 -0.21513 3.76176 0 0 0
765 -1.54418 -1.28122 2.98425 0 0 0
755 -2.23618 -0.53998 2.59301 0 0 0
762 -0.35937 -0.17478 2.74690 0 0 0
763 -0.72134 -0.74812 3.43862 0 0 0
655 0.26995 -1.36552 3.79093 0 0 0
653 0.55257 -0.77149 2.63890 0 0 0
654 1.09188 -1.07299 3.40270 0 0 0
672 0.43920 -0.30364 3.81263 0 0 0
670 1.90842 -0.41986 3.61755 0 0 0
16 3.82712 -1.11391 3.05915 0 0 0
563 3.77081 -0.28531 3.80391 0 0 0
68 -3.22644 -4.84680 4.15786 0 0 0
271 -2.91979 -5.25530 5.06065 0 0 0
236 2.86600 -5.83907 4.60750 0 0 0
620 3.02730 -4.95159 5.07003 0 0 0
71 -3.29293 -3.19946 5.20745 0 0 0
584 -3.35903 -3.82794 4.34996 0 0 0
626 -3.11674 -4.28060 5.20813 0 0 0
334 3.29687 -4.06805 4.66991 0 0 0
239 -3.48942 -2.17748 4.86891 0 0 0
656 0.11048 -1.71741 4.68770 0 0 0
657 0.34546 -2.50814 5.19984 0 0 0
658 1.26858 -2.30574 4.81150 0 0 0
141 3.47258 -2.89419 4.59953 0 0 0
116 -3.70545 -1.46298 4.02135 0 0 0
194 -3.48845 -1.11540 5.27218 0 0 0
259 3.68186 -1.20594 4.27165 0 0 0
257 3.45459 -1.40718 5.37591 0 0 0
263 -2.39996 -4.59805 7.19333 0 0 0
160 -2.32567 -5.81477 6.42759 0 0 0
618 2.43826 -4.89917 6.93480 0 0 0
377 2.71115 -5.17394 5.99829 0 0 0
556 2.20355 -5.91014 6.59901 0 0 0
477 -3.00359 -3.34342 6.22004 0 0 0
489 -2.83216 -4.41090 6.15816 0 0 0
505 2.87790 -4.18824 6.23190 0 0 0
77 2.78939 -3.39515 6.85716 0 0 0
429 3.14521 -3.04937 5.85914 0 0 0
362 -3.23301 -1.75535 6.05465 0 0 0
390 -2.81455 -2.82596 7.11748 0 0 0
502 3.13603 -1.97514 6.42245 0 0 0
346 -3.12389 -0.57054 6.61126 0 0 0
131 3.00019 -0.60563 7.09635 0 0 0
465 3.27771 -0.29590 6.14291 0 0 0
491 -1.76543 -5.34775 7.91106 0 0 0
3 -0.96288 -5.91472 8.40471 0 0 0
51 1.73864 -5.85311 7.53372 0 0 0
536 1.56059 -5.16663 8.30803 0 0 0
521 -2.44188 -3.65022 7.56574 0 0 0
179 -2.05086 -3.20090 8.56058 0 0 0
244 2.14471 -4.45362 7.80086 0 0 0
1 2.33137 -3.30004 7.97013 0 0 0
482 1.78899 -3.99675 8.64225 0 0 0
629 -2.57799 -2.25770 7.90562 0 0 0
20 -2.91412 -1.61196 7.21941 0 0 0
256 -2.08724 -2.12755 8.76805 0 0 0
402 2.58402 -2.11201 7.88262 0 0 0
557 -2.72309 -0.76824 7.78156 0 0 0
383 -2.22791 -0.95847 8.77077 0 0 0
591 2.64298 -1.04076 7.93444 0 0 0
195 2.27371 -0.39682 8.74690 0 0 0
207 -1.42935 -4.60955 8.81356 0 0 0
439 -0.05202 -5.95541 8.82541 0 0 0
564 -0.53208 -5.08661 9.19660 0 0 0
273 0.79957 -4.79379 9.24736 0 0 0
6 -0.25147 -4.20374 9.72036 0 0 0
213 -1.27235 -3.76411 9.38047 0 0 0
245 0.67865 -3.53716 9.79351 0 0 0
608 -1.59370 -2.80637 9.36399 0 0 0
427 -0.76905 -2.56832 10.08189 0 0 0
555 -0.55741 -1.60417 10.32156 0 0 0
363 0.30539 -2.66268 10.28097 0 0 0
412 1.27350 -2.13258 9.81505 0 0 0
83 1.81025 -2.93100 9.05600 0 0 0
514 2.15226 -1.65822 8.84466 0 0 0
199 -1.69239 -0.18008 9.66686 0 0 0
188 -1.38940 -1.12770 9.85366 0 0 0
454 0.66073 -1.37903 10.36234 0 0 0
45 0.95572 -0.23227 10.24315 0 0 0
12 1.63699 -0.74594 9.68261 0 0 0
102 -0.35151 -0.63145 10.54263 0 0 0
193 -0.11503 0.85922 -10.54163 0 0 0
326 -2.13597 0.71525 -8.95951 0 0 0
434 -1.02424 1.09139 -10.16107 0 0 0
385 1.16504 0.50240 -10.17813 0 0 0
89 1.87155 0.92494 -9.33259 0 0 0
501 -1.84962 1.78907 -9.24222 0 0 0
544 -0.50490 1.97198 -10.34590 0 0 0
165 -1.38380 2.60186 -9.66437 0 0 0
36 0.48576 2.22301 -10.27184 0 0 0
478 1.32308 1.72539 -9.91412 0 0 0
190 1.77495 2.42811 -9.26647 0 0 0
406 -1.54766 3.68197 -9.06754 0 0 0
206 -0.74889 3.96881 -9.65420 0 0 0
252 -0.56564 3.01904 -10.09945 0 0 0
30 0.94413 3.38391 -9.70842 0 0 0
504 0.26533 4.21779 -9.74075 0 0 0
600 1.68608 3.39587 -9.00989 0 0 0
594 -0.41634 5.78126 -8.83868 0 0 0
42 -0.87855 4.90804 -9.05450 0 0 0
204 0.58588 5.25343 -9.09121 0 0 0
111 1.33008 4.54483 -8.93044 0 0 0
76 -2.90974 0.77755 -7.23607 0 0 0
623 -2.61023 0.41722 -8.13020 0 0 0
561 2.31315 1.47480 -8.60420 0 0 0
470 2.77288 0.61809 -7.69101 0 0 0
404 -2.47569 1.95241 -8.16697 0 0 0
701 -0.31434 2.83345 -7.22280 0 0 0
379 2.36611 2.64362 -8.16324 0 0 0
32 2.68033 1.77736 -7.71627 0 0 0
200 -2.28034 3.21433 -8.09161 0 0 0
98 -1.99666 4.26957 -8.14771 0 0 0
350 2.07223 3.89159 -8.19834 0 0 0
408 -1.85185 5.95120 -7.25362 0 0 0
547 -1.58243 5.18323 -8.32663 0 0 0
114 1.32751 5.46504 -8.42143 0 0 0
435 -3.22351 1.42213 -6.23544 0 0 0
698 -0.11364 0.43217 -5.81971 0 0 0
699 -0.07045 1.34399 -5.93266 0 0 0
249 3.33581 0.06004 -6.06095 0 0 0
196 -2.86492 1.98642 -7.19386 0 0 0
562 -2.95127 2.81789 -6.58874 0 0 0
705 -1.59955 1.96286 -5.70708 0 0 0
700 -0.45632 2.17816 -6.52879 0 0 0
704 -1.46665 2.90378 -6.04960 0 0 0
96 2.86609 2.81755 -6.95958 0 0 0
291 3.16590 1.60534 -6.44881 0 0 0
91 -2.80489 3.86151 -6.57669 0 0 0
703 -0.90231 3.67470 -5.83276 0 0 0
702 -0.93841 3.44090 -6.78342 0 0 0
581 2.60522 3.80566 -7.17727 0 0 0
266 3.09275 3.37836 -5.92613 0 0 0
283 -2.38285 4.85871 -7.08377 0 0 0
569 -2.47491 5.54354 -6.31182 0 0 0
143 2.36378 4.77757 -7.16502 0 0 0
189 1.96390 5.90182 -7.13610 0 0 0
169 2.59879 5.53570 -6.01452 0 0 0
469 -3.49412 0.21638 -5.33867 0 0 0
97 -3.56150 1.21546 -4.88802 0 0 0
592 -3.69065 0.29473 -4.31849 0 0 0
706 -1.61288 1.24348 -5.02282 0 0 0
707 -1.63567 1.43969 -4.13423 0 0 0
902 -0.07489 1.08467 -4.63761 0 0 0
393 3.58101 0.04726 -4.99728 0 0 0
398 3.51145 1.34501 -5.06135 0 0 0
604 3.68976 0.65663 -4.20974 0 0 0
148 -3.31599 2.49034 -5.56656 0 0 0
8 -3.60453 2.63089 -4.11755 0 0 0
903 0.54088 1.80308 -4.39502 0 0 0
904 1.27855 2.27109 -4.00868 0 0 0
530 3.38153 2.48201 -5.22345 0 0 0
543 3.62775 2.18946 -4.17537 0 0 0
460 -3.10185 4.09019 -5.49460 0 0 0
553 -3.37503 3.44016 -4.69631 0 0 0
894 -1.39195 3.28557 -4.06185 0 0 0
893 -1.44941 4.28395 -4.12750 0 0 0
889 0.62619 4.11187 -4.16691 0 0 0
171 3.33500 4.25764 -4.08908 0 0 0
459 3.50127 3.19011 -4.26195 0 0 0
532 -3.15330 5.17594 -4.11385 0 0 0
122 -2.88407 5.31977 -5.16168 0 0 0
891 -0.33434 5.43869 -4.24433 0 0 0
892 -0.70481 4.65551 -4.67323 0 0 0
890 0.30769 4.82164 -4.69054 0 0 0
490 2.95189 4.55111 -5.55312 0 0 0
305 3.02334 5.30949 -4.63656 0 0 0
248 -3.86466 1.41440 -2.53769 0 0 0
79 -3.84857 0.05853 -3.35806 0 0 0
474 -3.72978 1.36291 -3.83542 0 0 0
708 -1.81578 1.12206 -3.28308 0 0 0
900 -0.07532 1.10298 -2.99095 0 0 0
709 -1.35275 0.83474 -2.46978 0 0 0
901 -0.41315 0.75668 -3.78724 0 0 0
843 1.47975 1.48523 -3.36290 0 0 0
844 1.76449 0.66122 -3.75656 0 0 0
839 2.18711 0.12424 -2.42859 0 0 0
162 3.82288 0.97631 -3.24481 0 0 0
597 -3.76667 2.28360 -3.17963 0 0 0
895 -0.83343 2.60280 -3.84499 0 0 0
896 -0.63200 2.08346 -3.11704 0 0 0
842 0.87727 2.00922 -2.77706 0 0 0
905 2.13734 2.20098 -3.59650 0 0 0
906 2.22554 1.79499 -2.76549 0 0 0
445 3.83897 1.92599 -2.73684 0 0 0
546 3.76366 2.95572 -2.50954 0 0 0
302 -3.41783 4.20782 -3.82780 0 0 0
251 -3.63948 3.36481 -2.95955 0 0 0
888 0.79466 4.43902 -3.30173 0 0 0
887 1.00416 3.69338 -2.73257 0 0 0
369 3.56624 3.72061 -3.17450 0 0 0
318 -3.41610 4.83568 -2.74955 0 0 0
576 3.30887 5.02551 -3.42641 0 0 0
488 -3.94925 0.02182 -2.24990 0 0 0
422 -3.99921 0.56463 -1.27006 0 0 0
718 -2.06008 1.25864 -0.95610 0 0 0
855 -2.49118 0.56516 -2.22781 0 0 0
854 -2.20982 0.18861 -1.37663 0 0 0
710 -1.23915 1.02250 -1.56013 0 0 0
899 -0.32027 0.79036 -2.09097 0 0 0
898 -0.24362 1.48172 -1.41181 0 0 0
851 -0.40633 0.45366 -0.90443 0 0 0
857 -1.04542 0.00997 -1.71882 0 0 0
850 0.47501 0.65584 -1.18775 0 0 0
849 1.46389 0.66128 -1.27296 0 0 0
841 0.69531 1.24051 -2.16037 0 0 0
848 1.03020 0.14566 -1.97774 0 0 0
909 2.40491 1.13598 -0.93446 0 0 0
840 1.55548 0.85381 -2.38490 0 0 0
60 3.95782 0.57095 -2.17547 0 0 0
571 3.99298 0.32015 -1.18373 0 0 0
407 -3.79511 2.87914 -2.08352 0 0 0
234 -3.96790 1.55842 -1.00895 0 0 0
719 -2.45424 1.79341 -1.67509 0 0 0
720 -2.17776 2.59368 -2.19089 0 0 0
745 -1.28485 2.09257 -1.39789 0 0 0
744 -0.51405 2.65481 -1.58843 0 0 0
897 -0.54573 1.91622 -2.21894 0 0 0
725 0.83643 1.71879 -1.17818 0 0 0
915 0.28024 2.95893 -0.98620 0 0 0
724 0.49186 2.19977 -1.87959 0 0 0
908 1.97323 2.01742 -0.95475 0 0 0
907 2.34818 1.96985 -1.85114 0 0 0
265 3.94405 1.88581 -1.43611 0 0 0
473 3.86742 2.97589 -1.09306 0 0 0
270 -3.66720 4.30002 -1.41983 0 0 0
411 -3.80903 3.27743 -0.93355 0 0 0
721 -1.54828 3.33344 -2.02430 0 0 0
743 -0.69204 3.35545 -0.94081 0 0 0
722 -0.61581 3.39174 -2.38630 0 0 0
723 0.33562 3.00925 -2.37323 0 0 0
886 1.52700 4.27318 -2.03982 0 0 0
149 3.72301 3.75998 -1.89681 0 0 0
281 -3.30704 5.72551 -2.00519 0 0 0
360 -3.43468 5.51361 -0.95483 0 0 0
885 1.17062 5.05967 -1.59397 0 0 0
884 0.86736 5.83408 -1.04039 0 0 0
154 3.44005 5.05902 -2.35163 0 0 0
56 3.39246 5.59425 -1.31785 0 0 0
549 3.58442 4.71077 -0.87498 0 0 0
226 -4.04102 0.90496 0.03447 0 0 0
717 -1.68890 1.04159 -0.02756 0 0 0
759 -1.58626 0.05654 0.46131 0 0 0
852 -1.30341 0.23663 -0.67912 0 0 0
635 -0.69293 0.70056 0.15534 0 0 0
711 -1.01347 1.31204 -0.68065 0 0 0
636 -0.09626 1.12944 0.75205 0 0 0
912 0.37802 0.43474 -0.05650 0 0 0
868 1.22406 1.11675 -0.37980 0 0 0
913 0.12810 1.28848 -0.35212 0 0 0
867 0.98367 1.40428 0.49783 0 0 0
911 1.19125 0.03441 -0.49410 0 0 0
910 2.08911 0.37170 -0.52117 0 0 0
869 1.55608 0.55691 0.37938 0 0 0
322 4.03286 0.85377 -0.31525 0 0 0
603 -3.87777 2.78006 0.61890 0 0 0
391 -3.95934 1.94719 0.00713 0 0 0
716 -2.23803 1.73936 0.39653 0 0 0
914 -0.12599 2.20671 -0.63098 0 0 0
746 -1.25116 2.56208 -0.52718 0 0 0
712 -0.70781 1.78433 0.10745 0 0 0
747 -1.47755 2.51066 0.42964 0 0 0
726 0.93161 2.16271 -0.32777 0 0 0
727 0.26748 2.16426 0.38712 0 0 0
864 2.13617 2.25717 0.06905 0 0 0
73 3.89969 2.93768 -0.03629 0 0 0
577 3.95320 1.89211 -0.39826 0 0 0
28 -3.80395 3.66233 0.07551 0 0 0
740 -1.69145 4.00679 0.42919 0 0 0
741 -2.25063 3.81966 -0.32102 0 0 0
742 -1.40719 3.98548 -0.76718 0 0 0
739 -0.83512 3.85280 0.79789 0 0 0
738 -0.39436 3.18379 0.30540 0 0 0
736 0.97881 3.88496 -0.50683 0 0 0
737 0.49507 3.26646 -0.03792 0 0 0
863 1.64220 3.10876 0.09928 0 0 0
147 3.66592 4.45727 0.11481 0 0 0
431 -3.52493 5.07994 0.61637 0 0 0
583 -3.62983 4.66747 -0.39793 0 0 0
733 -0.60318 5.22445 -0.02743 0 0 0
732 -0.11480 5.81544 0.52172 0 0 0
735 0.59894 4.69119 -0.22802 0 0 0
734 0.04022 5.25207 -0.76526 0 0 0
883 1.78062 5.89461 -0.76743 0 0 0
216 3.45952 5.47779 -0.22591 0 0 0
63 -3.95465 1.02689 1.92481 0 0 0
105 -3.95924 0.01821 2.19534 0 0 0
378 -4.02204 0.53228 1.04845 0 0 0
715 -2.01511 0.96441 0.97137 0 0 0
753 -1.34281 0.98545 1.99817 0 0 0
714 -1.13676 1.34558 0.98345 0 0 0
675 -0.18472 0.83619 1.82960 0 0 0
760 -0.93556 0.31149 1.20430 0 0 0
665 -0.01009 0.12401 0.91736 0 0 0
866 1.41360 1.41086 1.47166 0 0 0
652 0.62054 0.04959 2.19981 0 0 0
666 0.76380 0.55248 1.16430 0 0 0
651 0.85894 0.99992 2.26748 0 0 0
667 1.58219 0.15883 1.49303 0 0 0
668 2.08955 0.36029 2.33826 0 0 0
612 3.98311 0.43607 1.75471 0 0 0
394 3.98924 1.12645 1.00848 0 0 0
437 -3.90753 2.40225 1.58085 0 0 0
520 -3.97632 1.52970 0.94859 0 0 0
748 -1.47667 2.98320 1.25197 0 0 0
752 -0.78602 1.73359 2.06332 0 0 0
713 -0.58683 2.12728 0.99666 0 0 0
638 0.72787 2.40301 1.95708 0 0 0
637 0.34531 1.67051 1.41599 0 0 0
728 0.26597 2.89427 1.07182 0 0 0
865 1.63021 2.18899 0.87970 0 0 0
531 3.94064 2.25131 0.81591 0 0 0
433 3.83444 2.58611 1.90888 0 0 0
181 -3.62192 4.35803 1.87410 0 0 0
524 -3.74464 3.22759 2.15452 0 0 0
410 -3.75748 3.58938 1.20996 0 0 0
749 -1.67702 3.22673 2.14795 0 0 0
729 0.41259 3.85682 1.15842 0 0 0
639 0.45977 3.17693 2.37283 0 0 0
862 2.01033 3.52043 0.89567 0 0 0
551 3.82393 3.37226 0.99326 0 0 0
78 3.61310 4.49391 1.72616 0 0 0
513 3.71449 3.55051 2.34423 0 0 0
730 0.91866 4.65439 1.17129 0 0 0
731 0.13371 5.19187 1.23108 0 0 0
380 3.40116 5.58196 1.31911 0 0 0
446 -3.80407 0.93249 3.51959 0 0 0
754 -1.66818 0.20742 2.58017 0 0 0
674 -0.20348 0.87349 2.77693 0 0 0
673 0.37044 0.66891 3.51924 0 0 0
671 1.16755 0.07529 3.39607 0 0 0
669 2.30277 0.37431 3.28539 0 0 0
388 3.83552 0.55281 3.24141 0 0 0
444 3.89552 1.22751 2.44985 0 0 0
275 -3.81977 1.88635 3.05446 0 0 0
751 -0.86149 2.25201 2.85909 0 0 0
650 1.15441 1.78289 2.85419 0 0 0
648 0.54219 2.13111 3.84750 0 0 0
649 1.52359 2.32334 3.54382 0 0 0
231 3.75874 2.52357 2.99668 0 0 0
276 -3.50651 4.33466 2.87623 0 0 0
321 -3.62360 3.33511 3.15982 0 0 0
750 -1.39113 3.03497 3.01121 0 0 0
640 -0.42020 3.45309 2.60911 0 0 0
641 -0.71640 4.00022 3.28250 0 0 0
642 0.26511 4.09631 3.22203 0 0 0
370 3.53028 3.58572 3.64512 0 0 0
336 -3.21874 5.81031 2.49842 0 0 0
208 -3.18158 5.37007 3.68992 0 0 0
644 -0.34814 4.97475 3.49670 0 0 0
643 0.64071 4.93946 3.41358 0 0 0
313 3.30565 5.52924 2.43932 0 0 0
40 3.43084 4.66520 3.23519 0 0 0
325 -3.63311 0.55355 4.63505 0 0 0
39 3.60911 0.19769 4.67924 0 0 0
55 -3.60177 1.85314 4.46103 0 0 0
647 0.07960 2.85442 4.26412 0 0 0
484 3.38639 2.24909 5.25841 0 0 0
288 3.60479 1.73988 4.33175 0 0 0
471 -3.44856 3.09531 4.46414 0 0 0
496 -3.33485 4.21225 4.37141 0 0 0
37 -3.25743 3.09844 5.44708 0 0 0
646 0.26457 3.73865 4.48597 0 0 0
211 3.38277 3.30312 4.84534 0 0 0
443 3.14509 4.43356 4.91535 0 0 0
349 -2.98633 4.96854 5.15922 0 0 0
311 -2.66452 5.99972 5.23437 0 0 0
645 -0.04208 4.59191 4.31550 0 0 0
95 2.82804 5.35986 5.40681 0 0 0
487 3.06801 5.33242 4.31727 0 0 0
512 -3.08505 1.01018 6.82155 0 0 0
417 -3.31691 0.29903 6.08314 0 0 0
361 3.38034 1.29317 5.66119 0 0 0
413 3.06197 0.44358 6.82040 0 0 0
438 -3.31875 1.55199 5.83070 0 0 0
373 -3.10152 2.48088 6.23696 0 0 0
151 3.00801 1.76415 6.81316 0 0 0
117 3.03412 2.81531 6.35780 0 0 0
621 -3.03722 4.06677 5.60528 0 0 0
578 -2.65089 4.42702 6.64631 0 0 0
293 -2.94022 3.48834 6.41552 0 0 0
333 2.99266 4.01512 5.96302 0 0 0
18 2.69960 3.38255 7.12949 0 0 0
240 -2.59623 5.30721 6.09352 0 0 0
601 -2.19701 5.50313 6.99213 0 0 0
306 2.42154 5.14000 6.72371 0 0 0
113 -2.78064 0.24252 7.65878 0 0 0
481 -2.48828 1.00375 8.31441 0 0 0
566 -2.26241 0.12311 8.73400 0 0 0
14 2.64428 0.64007 7.92512 0 0 0
611 -2.26752 1.95413 8.55661 0 0 0
523 -2.50656 2.67738 7.85651 0 0 0
23 -2.85947 1.95764 7.22350 0 0 0
168 2.42595 2.03157 8.20917 0 0 0
628 2.09500 2.87631 8.63850 0 0 0
448 -2.46043 3.74377 7.49578 0 0 0
338 -1.99268 3.01375 8.67195 0 0 0
541 -1.66200 4.47196 8.58698 0 0 0
344 2.16068 3.76692 8.18213 0 0 0
316 -2.11668 4.69310 7.65405 0 0 0
392 -1.55761 5.64097 7.96231 0 0 0
69 1.51623 5.12862 8.37091 0 0 0
537 2.16943 4.71129 7.61755 0 0 0
24 -1.94044 1.28341 9.22764 0 0 0
310 -1.36173 0.74700 9.96599 0 0 0
215 1.42223 0.75963 9.90339 0 0 0
525 2.11619 0.91340 8.96571 0 0 0
582 -1.68101 2.24514 9.33669 0 0 0
191 -1.02578 2.79801 9.88625 0 0 0
540 -0.99111 1.77845 10.06685 0 0 0
124 0.26755 2.50187 10.23453 0 0 0
366 1.48972 2.87958 9.43566 0 0 0
4 1.25880 1.90809 9.85816 0 0 0
593 1.92292 1.94925 9.09086 0 0 0
462 -1.41995 3.66327 9.17329 0 0 0
61 -0.15526 3.65537 9.92874 0 0 0
580 -0.80988 4.45964 9.40894 0 0 0
278 1.11130 4.24744 9.27767 0 0 0
395 -0.93937 5.31579 8.82607 0 0 0
253 0.18419 4.62654 9.54654 0 0 0
560 0.66803 5.38294 8.97728 0 0 0
59 0.02447 0.34478 10.58416 0 0 0
328 0.01216 1.51464 10.52822 0 0 0
246 -0.70690 6.97032 -7.75611 0 0 0
354 -1.15179 6.06886 -8.09372 0 0 0
10 0.53214 6.12831 -8.56413 0 0 0
317 0.96148 7.13890 -7.36304 0 0 0
589 1.28107 6.31293 -7.86732 0 0 0
624 0.25339 6.93532 -8.04345 0 0 0
476 -0.04915 7.59670 -7.33113 0 0 0
175 -2.15745 6.51462 -6.13661 0 0 0
223 -1.32666 7.20223 -6.89672 0 0 0
455 2.19435 6.78558 -5.84915 0 0 0
550 1.67574 6.89928 -6.70232 0 0 0
567 -1.38551 7.89559 -6.01543 0 0 0
50 -0.51360 8.31229 -6.42253 0 0 0
15 0.58348 8.10370 -6.62647 0 0 0
284 1.53912 7.72533 -5.94533 0 0 0
606 -2.57796 6.31386 -5.21766 0 0 0
320 -2.60908 6.84087 -4.31344 0 0 0
351 2.57380 6.78790 -4.55304 0 0 0
58 -2.09435 7.56566 -5.06416 0 0 0
528 -2.02807 8.19146 -4.17802 0 0 0
367 -1.34786 8.49882 -5.21232 0 0 0
243 0.33508 8.97059 -5.51597 0 0 0
466 1.27270 8.82301 -4.83804 0 0 0
52 2.14700 7.99728 -4.11403 0 0 0
235 2.11434 7.51981 -5.07284 0 0 0
184 -0.86746 9.27361 -4.68800 0 0 0
128 0.57220 9.45466 -4.44067 0 0 0
343 -3.06230 6.18233 -2.98649 0 0 0
230 2.61855 7.40241 -3.31402 0 0 0
99 3.03376 6.00393 -3.44457 0 0 0
232 -2.52363 7.67413 -3.17583 0 0 0
107 -1.88519 8.72530 -3.26890 0 0 0
13 1.64741 8.92715 -3.71743 0 0 0
364 2.17259 8.46318 -2.73095 0 0 0
428 -1.31503 9.54769 -2.92279 0 0 0
237 -0.43775 9.81811 -3.87566 0 0 0
418 -0.59131 10.14097 -2.49493 0 0 0
309 0.63273 9.84159 -3.49820 0 0 0
627 1.50736 9.46115 -2.88277 0 0 0
607 -3.11100 6.66168 -1.52537 0 0 0
534 -2.85015 7.16605 -2.35189 0 0 0
441 2.89892 7.21834 -1.62030 0 0 0
464 3.07886 6.45152 -2.38211 0 0 0